Generated by Multiwfn
SP        RB3LYP                                              6-31G(d)
Number of atoms                            I                3
Charge                                     I                0
Multiplicity                               I                1
Number of electrons                        I               10
Number of alpha electrons                  I                5
Number of beta electrons                   I                5
Number of basis functions                  I               24
Number of independent functions            I               24
Atomic numbers                             I   N=           3
           8           1           1
Nuclear charges                            R   N=           3
  8.00000000E+00  1.00000000E+00  1.00000000E+00
Current cartesian coordinates              R   N=           9
  0.00000000E+00  0.00000000E+00 -1.27119337E-01  0.00000000E+00  1.43056901E+00
  1.00882057E+00  0.00000000E+00 -1.43056901E+00  1.00882057E+00
Translation vectors                        R   N=           0
Number of contracted shells                I               12
Number of primitive shells                 I               22
Highest angular momentum                   I                2
Largest degree of contraction              I                5
Shell types                                I   N=          12
           0           0           0           1           1          -2
           0           0           1           0           0           1
Number of primitives per shell             I   N=          12
           5           1           1           3           1           1
           3           1           1           3           1           1
Shell to atom map                          I   N=          12
           1           1           1           1           1           1
           2           2           2           3           3           3
Primitive exponents                        R   N=          22
  2.26617678E+03  3.40870102E+02  7.73631352E+01  2.14796449E+01  6.65894331E+00
  8.09759757E-01  2.55307722E-01  1.77215043E+01  3.86355054E+00  1.04809209E+00
  2.76415444E-01  1.20000000E+00  1.30107010E+01  1.96225720E+00  4.44537960E-01
  1.21949620E-01  8.00000000E-01  1.30107010E+01  1.96225720E+00  4.44537960E-01
  1.21949620E-01  8.00000000E-01
Contraction coefficients                   R   N=          22
 -5.38935040E-03 -4.02347214E-02 -1.80081842E-01 -4.68288577E-01 -4.46926172E-01
  1.00000000E+00  1.00000000E+00  6.26302488E-02  3.33311385E-01  7.41486383E-01
  1.00000000E+00  1.00000000E+00  3.34854848E-02  2.34721871E-01  8.13770285E-01
  1.00000000E+00  1.00000000E+00  3.34854848E-02  2.34721871E-01  8.13770285E-01
  1.00000000E+00  1.00000000E+00
Coordinates of each shell                  R   N=          36
  0.00000000E+00  0.00000000E+00 -1.27119337E-01  0.00000000E+00  0.00000000E+00
 -1.27119337E-01  0.00000000E+00  0.00000000E+00 -1.27119337E-01  0.00000000E+00
  0.00000000E+00 -1.27119337E-01  0.00000000E+00  0.00000000E+00 -1.27119337E-01
  0.00000000E+00  0.00000000E+00 -1.27119337E-01  0.00000000E+00  1.43056901E+00
  1.00882057E+00  0.00000000E+00  1.43056901E+00  1.00882057E+00  0.00000000E+00
  1.43056901E+00  1.00882057E+00  0.00000000E+00 -1.43056901E+00  1.00882057E+00
  0.00000000E+00 -1.43056901E+00  1.00882057E+00  0.00000000E+00 -1.43056901E+00
  1.00882057E+00
Virial Ratio                               R      2.000000000000000E+00
Total Energy                               R      0.000000000000000E+00
Alpha Orbital Energies                     R   N=          24
 -1.91197113E+01 -9.79785045E-01 -5.11661640E-01 -3.67891434E-01 -2.91645400E-01
  4.48055316E-02  1.23767606E-01  5.55223576E-01  6.20737217E-01  9.17293175E-01
  9.20218197E-01  1.00687226E+00  1.09495240E+00  1.34784249E+00  1.39553649E+00
  1.54226707E+00  1.78666729E+00  2.19892995E+00  2.24604275E+00  2.96066680E+00
  2.99661768E+00  3.18467574E+00  3.48372787E+00  3.82058818E+00
Alpha MO coefficients                      R   N=         576
 -9.88806147E-01  3.95155783E-02 -1.40014261E-02  0.00000000E+00  0.00000000E+00
  3.08821302E-03  0.00000000E+00  0.00000000E+00 -8.00729480E-05  1.79017148E-04
  0.00000000E+00  0.00000000E+00 -1.28856520E-03  0.00000000E+00 -2.38312071E-03
  2.32872618E-03  0.00000000E+00  2.52385182E-03  2.04699709E-03 -2.38312071E-03
  2.32872618E-03  0.00000000E+00 -2.52385182E-03  2.04699709E-03  2.76375828E-01
  5.51826178E-01  2.58455874E-01  0.00000000E+00  0.00000000E+00  1.21838819E-01
  0.00000000E+00  0.00000000E+00 -1.25661355E-04  2.88210316E-03  0.00000000E+00
  0.00000000E+00 -5.41801286E-03  0.00000000E+00  2.04631425E-01  1.41299274E-02
  0.00000000E+00 -3.14451123E-02 -1.53121840E-02  2.04631425E-01  1.41299274E-02
  0.00000000E+00  3.14451123E-02 -1.53121840E-02  0.00000000E+00  0.00000000E+00
  0.00000000E+00  0.00000000E+00 -5.05103087E-01  0.00000000E+00  0.00000000E+00
 -2.04439323E-01  0.00000000E+00  0.00000000E+00  0.00000000E+00 -2.31280891E-02
  0.00000000E+00  0.00000000E+00 -3.27566598E-01 -1.08060291E-01  0.00000000E+00
  1.40955086E-02  2.62025269E-02  3.27566598E-01  1.08060291E-01  0.00000000E+00
  1.40955086E-02 -2.62025269E-02 -1.11465182E-01 -2.19961894E-01 -3.70469442E-01
  0.00000000E+00  0.00000000E+00  5.45628813E-01  0.00000000E+00  0.00000000E+00
  3.40913338E-01  1.85042630E-02  0.00000000E+00  0.00000000E+00 -9.17592203E-04
  0.00000000E+00  2.01851380E-01  6.66267404E-02  0.00000000E+00 -2.50078833E-02
  1.32211218E-02  2.01851380E-01  6.66267404E-02  0.00000000E+00  2.50078833E-02
  1.32211218E-02  0.00000000E+00  0.00000000E+00  0.00000000E+00  6.38192148E-01
  0.00000000E+00  0.00000000E+00  4.90359954E-01  0.00000000E+00  0.00000000E+00
  0.00000000E+00  1.95692231E-02  0.00000000E+00  0.00000000E+00  0.00000000E+00
  0.00000000E+00  0.00000000E+00  3.03739479E-02  0.00000000E+00  0.00000000E+00
  0.00000000E+00  0.00000000E+00  3.03739479E-02  0.00000000E+00  0.00000000E+00
  1.02222318E-01  1.65239404E-01  9.62601490E-01  0.00000000E+00  0.00000000E+00
  2.47072972E-01  0.00000000E+00  0.00000000E+00  3.43849743E-01  9.01978693E-03
  0.00000000E+00  0.00000000E+00 -4.06366345E-03  0.00000000E+00 -1.12138421E-01
 -8.25393389E-01  0.00000000E+00 -2.57483527E-03  1.36846496E-03 -1.12138421E-01
 -8.25393389E-01  0.00000000E+00  2.57483527E-03  1.36846496E-03  0.00000000E+00
  0.00000000E+00  0.00000000E+00  0.00000000E+00  3.69647675E-01  0.00000000E+00
  0.00000000E+00  6.06645497E-01  0.00000000E+00  0.00000000E+00  0.00000000E+00
  8.65811920E-03  0.00000000E+00  0.00000000E+00 -1.04780148E-01 -1.29977800E+00
  0.00000000E+00 -6.54936584E-04 -4.80453763E-03  1.04780148E-01  1.29977800E+00
  0.00000000E+00 -6.54936584E-04  4.80453763E-03  0.00000000E+00  0.00000000E+00
  0.00000000E+00  0.00000000E+00  2.94158142E-01  0.00000000E+00  0.00000000E+00
  3.75422772E-01  0.00000000E+00  0.00000000E+00  0.00000000E+00 -1.01594925E-01
  0.00000000E+00  0.00000000E+00 -9.61712965E-01  8.44398975E-01  0.00000000E+00
 -4.38829735E-02 -1.08330656E-01  9.61712965E-01 -8.44398975E-01  0.00000000E+00
 -4.38829735E-02  1.08330656E-01 -1.05699658E-01 -3.92079574E-01  4.43536795E-01
  0.00000000E+00  0.00000000E+00 -3.87091616E-01  0.00000000E+00  0.00000000E+00
  1.43739304E-02  1.03958163E-03  0.00000000E+00  0.00000000E+00 -9.33140093E-02
  0.00000000E+00  8.36717957E-01 -6.38505534E-01  0.00000000E+00  2.06650224E-01
  4.99628232E-02  8.36717957E-01 -6.38505534E-01  0.00000000E+00 -2.06650224E-01
  4.99628232E-02 -1.43102350E-01 -6.12800486E-01  1.23159820E-01  0.00000000E+00
  0.00000000E+00  7.75488906E-01  0.00000000E+00  0.00000000E+00 -1.14949593E+00
 -7.12036446E-03  0.00000000E+00  0.00000000E+00 -1.57177959E-02  0.00000000E+00
  3.97331750E-01 -1.20530845E-02  0.00000000E+00 -2.51560529E-02 -1.36353895E-01
  3.97331750E-01 -1.20530845E-02  0.00000000E+00  2.51560529E-02 -1.36353895E-01
  0.00000000E+00  0.00000000E+00  0.00000000E+00 -9.64175324E-01  0.00000000E+00
  0.00000000E+00  1.01950547E+00  0.00000000E+00  0.00000000E+00  0.00000000E+00
 -2.63799525E-03  0.00000000E+00  0.00000000E+00  0.00000000E+00  0.00000000E+00
  0.00000000E+00  2.20551231E-02  0.00000000E+00  0.00000000E+00  0.00000000E+00
  0.00000000E+00  2.20551231E-02  0.00000000E+00  0.00000000E+00  0.00000000E+00
  0.00000000E+00  0.00000000E+00  0.00000000E+00  7.77149725E-01  0.00000000E+00
  0.00000000E+00 -1.73609072E+00  0.00000000E+00  0.00000000E+00  0.00000000E+00
 -2.19175784E-02  0.00000000E+00  0.00000000E+00  3.44121389E-01  8.13911772E-01
  0.00000000E+00 -2.21903201E-01 -1.24788905E-01 -3.44121389E-01 -8.13911772E-01
  0.00000000E+00 -2.21903201E-01  1.24788905E-01  2.45263161E-01  1.54362547E+00
 -2.76225817E+00  0.00000000E+00  0.00000000E+00  9.94586867E-02  0.00000000E+00
  0.00000000E+00 -6.33184155E-01 -4.37880020E-02  0.00000000E+00  0.00000000E+00
 -5.32773018E-02  0.00000000E+00  5.24392306E-01  5.07142252E-01  0.00000000E+00
  3.76621800E-02 -3.09481910E-01  5.24392306E-01  5.07142252E-01  0.00000000E+00
 -3.76621800E-02 -3.09481910E-01  0.00000000E+00  0.00000000E+00  0.00000000E+00
  0.00000000E+00  0.00000000E+00  0.00000000E+00  0.00000000E+00  0.00000000E+00
  0.00000000E+00  0.00000000E+00  0.00000000E+00  0.00000000E+00  0.00000000E+00
  1.73557858E-01  0.00000000E+00  0.00000000E+00  6.67943829E-01  0.00000000E+00
  0.00000000E+00  0.00000000E+00  0.00000000E+00 -6.67943829E-01  0.00000000E+00
  0.00000000E+00  8.38897453E-02  6.95907139E-01 -1.67288420E+00  0.00000000E+00
  0.00000000E+00  9.67409402E-02  0.00000000E+00  0.00000000E+00 -1.19222557E+00
  1.94000864E-01  0.00000000E+00  0.00000000E+00 -1.95524300E-02  0.00000000E+00
  7.35249409E-01  1.83496450E-01  0.00000000E+00 -4.44901251E-01  4.29548195E-01
  7.35249409E-01  1.83496450E-01  0.00000000E+00  4.44901251E-01  4.29548195E-01
  0.00000000E+00  0.00000000E+00  0.00000000E+00 -1.35077040E-04  0.00000000E+00
  0.00000000E+00 -5.79941368E-01  0.00000000E+00  0.00000000E+00  0.00000000E+00
  2.08894377E-01  0.00000000E+00  0.00000000E+00  0.00000000E+00  0.00000000E+00
  0.00000000E+00  7.32720656E-01  0.00000000E+00  0.00000000E+00  0.00000000E+00
  0.00000000E+00  7.32720656E-01  0.00000000E+00  0.00000000E+00  0.00000000E+00
  0.00000000E+00  0.00000000E+00  0.00000000E+00  8.41282003E-03  0.00000000E+00
  0.00000000E+00 -8.11290938E-01  0.00000000E+00  0.00000000E+00  0.00000000E+00
  2.95109096E-02  0.00000000E+00  0.00000000E+00  3.37835850E-01  9.18975706E-02
  0.00000000E+00  4.55459650E-01 -6.75968809E-01 -3.37835850E-01 -9.18975706E-02
  0.00000000E+00  4.55459650E-01  6.75968809E-01  0.00000000E+00  0.00000000E+00
  0.00000000E+00  0.00000000E+00 -7.27386174E-01  0.00000000E+00  0.00000000E+00
 -1.26926083E-01  0.00000000E+00  0.00000000E+00  0.00000000E+00  1.69433299E-01
  0.00000000E+00  0.00000000E+00  1.97794787E-01  3.36805640E-01  0.00000000E+00
 -6.86515659E-01 -5.22267824E-01 -1.97794787E-01 -3.36805640E-01  0.00000000E+00
 -6.86515659E-01  5.22267824E-01 -1.49283330E-01 -7.30026174E-01 -7.03380685E-01
  0.00000000E+00  0.00000000E+00 -5.87360470E-01  0.00000000E+00  0.00000000E+00
 -2.20235164E-01  8.50055924E-02  0.00000000E+00  0.00000000E+00 -2.78863372E-01
  0.00000000E+00  4.06445185E-01  2.06119187E-01  0.00000000E+00 -7.08971730E-01
 -5.15633903E-01  4.06445185E-01  2.06119187E-01  0.00000000E+00  7.08971730E-01
 -5.15633903E-01  0.00000000E+00  0.00000000E+00  0.00000000E+00  1.63390820E-02
  0.00000000E+00  0.00000000E+00 -3.00450919E-01  0.00000000E+00  0.00000000E+00
  0.00000000E+00 -1.02901163E+00  0.00000000E+00  0.00000000E+00  0.00000000E+00
  0.00000000E+00  0.00000000E+00  4.11487752E-01  0.00000000E+00  0.00000000E+00
  0.00000000E+00  0.00000000E+00  4.11487752E-01  0.00000000E+00  0.00000000E+00
  0.00000000E+00  0.00000000E+00  0.00000000E+00  0.00000000E+00  0.00000000E+00
  0.00000000E+00  0.00000000E+00  0.00000000E+00  0.00000000E+00  0.00000000E+00
  0.00000000E+00  0.00000000E+00  0.00000000E+00  1.05168404E+00  0.00000000E+00
  0.00000000E+00 -3.79831740E-01  0.00000000E+00  0.00000000E+00  0.00000000E+00
  0.00000000E+00  3.79831740E-01  0.00000000E+00  0.00000000E+00  3.13019469E-03
  9.56921595E-02 -4.45597501E-01  0.00000000E+00  0.00000000E+00  4.22017278E-03
  0.00000000E+00  0.00000000E+00 -5.03475718E-01 -1.06008642E+00  0.00000000E+00
  0.00000000E+00 -2.33960142E-01  0.00000000E+00  2.56739158E-01  4.59912625E-02
  0.00000000E+00 -3.46846745E-01  3.37479738E-01  2.56739158E-01  4.59912625E-02
  0.00000000E+00  3.46846745E-01  3.37479738E-01 -7.36497383E-02 -1.25216249E-01
 -1.92493692E+00  0.00000000E+00  0.00000000E+00 -3.77294385E-01  0.00000000E+00
  0.00000000E+00 -9.35032240E-01 -2.02146474E-01  0.00000000E+00  0.00000000E+00
  1.12873680E+00  0.00000000E+00  1.14638905E+00  2.37942133E-01  0.00000000E+00
 -6.22919761E-01 -4.85500439E-01  1.14638905E+00  2.37942133E-01  0.00000000E+00
  6.22919761E-01 -4.85500439E-01  0.00000000E+00  0.00000000E+00  0.00000000E+00
  0.00000000E+00 -4.62355928E-01  0.00000000E+00  0.00000000E+00 -1.10387063E+00
  0.00000000E+00  0.00000000E+00  0.00000000E+00 -1.33594730E+00  0.00000000E+00
  0.00000000E+00  1.03636954E+00  2.72293344E-01  0.00000000E+00 -6.14019953E-01
 -5.20630640E-01 -1.03636954E+00 -2.72293344E-01  0.00000000E+00 -6.14019953E-01
  5.20630640E-01
Total SCF Density                          R   N=         300
  2.13309136E+00  2.75912526E-01  7.08913694E-01  2.53140193E-01  4.47117206E-01
  4.08486172E-01  0.00000000E+00  0.00000000E+00  0.00000000E+00  8.14578435E-01
  0.00000000E+00  0.00000000E+00  0.00000000E+00  0.00000000E+00  5.10258256E-01
 -6.03979093E-02 -1.05323330E-01 -3.41384166E-01  0.00000000E+00  0.00000000E+00
  6.25130073E-01  0.00000000E+00  0.00000000E+00  0.00000000E+00  6.25887745E-01
  0.00000000E+00  0.00000000E+00  4.80905770E-01  0.00000000E+00  0.00000000E+00
  0.00000000E+00  0.00000000E+00  2.06525866E-01  0.00000000E+00  0.00000000E+00
  8.35908733E-02 -7.59110409E-02 -1.50120902E-01 -2.52658662E-01  0.00000000E+00
  0.00000000E+00  3.71993165E-01  0.00000000E+00  0.00000000E+00  2.32443853E-01
 -2.88610131E-03 -4.94547760E-03 -1.22257480E-02  0.00000000E+00  0.00000000E+00
  2.08963279E-02  0.00000000E+00  0.00000000E+00  1.26159471E-02  7.01492631E-04
  0.00000000E+00  0.00000000E+00  0.00000000E+00  2.49778491E-02  0.00000000E+00
  0.00000000E+00  1.91919267E-02  0.00000000E+00  0.00000000E+00  0.00000000E+00
  7.65908987E-04  0.00000000E+00  0.00000000E+00  0.00000000E+00  0.00000000E+00
  2.33641384E-02  0.00000000E+00  0.00000000E+00  9.45658174E-03  0.00000000E+00
  0.00000000E+00  0.00000000E+00  1.06981701E-03 -2.41974045E-04 -5.67776882E-03
 -2.08467125E-03  0.00000000E+00  0.00000000E+00 -2.32953679E-03  0.00000000E+00
  0.00000000E+00 -6.24070814E-04 -6.56506295E-05  0.00000000E+00  0.00000000E+00
  6.37144780E-05  0.00000000E+00  0.00000000E+00  0.00000000E+00  0.00000000E+00
  0.00000000E+00  0.00000000E+00  0.00000000E+00  0.00000000E+00  0.00000000E+00
  0.00000000E+00  0.00000000E+00  0.00000000E+00  0.00000000E+00  0.00000000E+00
  7.28244465E-02  1.36854390E-01 -4.37164141E-02  0.00000000E+00  3.30909799E-01
  2.70121240E-01  0.00000000E+00  1.33934987E-01  1.37576608E-01  8.64890655E-03
  0.00000000E+00  1.51519789E-02 -2.58168428E-03  0.00000000E+00  3.79847109E-01
 -1.16481002E-02 -1.35321184E-02 -4.21276282E-02  0.00000000E+00  1.09163173E-01
  7.61644691E-02  0.00000000E+00  4.41835452E-02  4.54239649E-02  2.54803904E-03
  0.00000000E+00  4.99845606E-03 -2.81386043E-04  0.00000000E+00  1.03463037E-01
  3.26424535E-02  0.00000000E+00  0.00000000E+00  0.00000000E+00  3.87688301E-02
  0.00000000E+00  0.00000000E+00  2.97883354E-02  0.00000000E+00  0.00000000E+00
  0.00000000E+00  1.18878913E-03  0.00000000E+00  0.00000000E+00  0.00000000E+00
  0.00000000E+00  0.00000000E+00  1.84515342E-03 -1.67975218E-02 -2.35034467E-02
  2.20429012E-03  0.00000000E+00 -1.42393699E-02 -3.49369257E-02  0.00000000E+00
 -5.76335248E-03 -1.70435433E-02 -1.10585739E-03  0.00000000E+00 -6.52004360E-04
  3.80129828E-04  0.00000000E+00 -3.22115327E-02 -7.25559661E-03  0.00000000E+00
  3.63848502E-03 -1.54593912E-02 -2.25538374E-02 -1.77684128E-02  0.00000000E+00
 -2.64699544E-02  1.07090564E-02  0.00000000E+00 -1.07136537E-02  9.01803404E-03
  4.01764539E-04  0.00000000E+00 -1.21202875E-03  1.36384644E-04  0.00000000E+00
 -1.81052063E-02 -4.32433113E-03  0.00000000E+00  1.05073067E-03  2.20004731E-03
  7.28244465E-02  1.36854390E-01 -4.37164141E-02  0.00000000E+00 -3.30909799E-01
  2.70121240E-01  0.00000000E+00 -1.33934987E-01  1.37576608E-01  8.64890655E-03
  0.00000000E+00 -1.51519789E-02 -2.58168428E-03  0.00000000E+00 -4.93523940E-02
 -3.81247294E-02  0.00000000E+00 -1.37426615E-02  1.62270840E-02  3.79847109E-01
 -1.16481002E-02 -1.35321184E-02 -4.21276282E-02  0.00000000E+00 -1.09163173E-01
  7.61644691E-02  0.00000000E+00 -4.41835452E-02  4.54239649E-02  2.54803904E-03
  0.00000000E+00 -4.99845606E-03 -2.81386043E-04  0.00000000E+00 -3.81247294E-02
 -1.40656521E-02  0.00000000E+00 -1.16293757E-03  7.00147953E-03  1.03463037E-01
  3.26424535E-02  0.00000000E+00  0.00000000E+00  0.00000000E+00  3.87688301E-02
  0.00000000E+00  0.00000000E+00  2.97883354E-02  0.00000000E+00  0.00000000E+00
  0.00000000E+00  1.18878913E-03  0.00000000E+00  0.00000000E+00  0.00000000E+00
  0.00000000E+00  0.00000000E+00  1.84515342E-03  0.00000000E+00  0.00000000E+00
  0.00000000E+00  0.00000000E+00  1.84515342E-03  1.67975218E-02  2.35034467E-02
 -2.20429012E-03  0.00000000E+00 -1.42393699E-02  3.49369257E-02  0.00000000E+00
 -5.76335248E-03  1.70435433E-02  1.10585739E-03  0.00000000E+00 -6.52004360E-04
 -3.80129828E-04  0.00000000E+00  1.37426615E-02  1.16293757E-03  0.00000000E+00
 -2.84375156E-03  4.26621107E-04  3.22115327E-02  7.25559661E-03  0.00000000E+00
  3.63848502E-03 -1.54593912E-02 -2.25538374E-02 -1.77684128E-02  0.00000000E+00
  2.64699544E-02  1.07090564E-02  0.00000000E+00  1.07136537E-02  9.01803404E-03
  4.01764539E-04  0.00000000E+00  1.21202875E-03  1.36384644E-04  0.00000000E+00
  1.62270840E-02  7.00147953E-03  0.00000000E+00 -4.26621107E-04 -5.46242352E-04
 -1.81052063E-02 -4.32433113E-03  0.00000000E+00 -1.05073067E-03  2.20004731E-03
