Generated by Multiwfn
SP        RB3LYP                                              6-31G(d)
Number of atoms                            I               12
Charge                                     I                0
Multiplicity                               I                1
Number of electrons                        I               42
Number of alpha electrons                  I               21
Number of beta electrons                   I               21
Number of basis functions                  I              114
Number of independent functions            I              114
Atomic numbers                             I   N=          12
           1           1           1           1           1           1
           6           6           6           6           6           6
Nuclear charges                            R   N=          12
  1.00000000E+00  1.00000000E+00  1.00000000E+00  1.00000000E+00  1.00000000E+00
  1.00000000E+00  6.00000000E+00  6.00000000E+00  6.00000000E+00  6.00000000E+00
  6.00000000E+00  6.00000000E+00
Current cartesian coordinates              R   N=          36
 -2.35470556E+00 -4.07846967E+00  0.00000000E+00  2.35470556E+00 -4.07846967E+00
  0.00000000E+00  4.70941112E+00  0.00000000E+00  0.00000000E+00  2.35470556E+00
  4.07846967E+00  0.00000000E+00 -2.35470556E+00  4.07846967E+00  0.00000000E+00
 -4.70941112E+00  0.00000000E+00  0.00000000E+00 -1.32170434E+00 -2.28925908E+00
  0.00000000E+00  1.32170434E+00 -2.28925908E+00  0.00000000E+00  2.64340869E+00
  0.00000000E+00  0.00000000E+00  1.32170434E+00  2.28925908E+00  0.00000000E+00
 -1.32170434E+00  2.28925908E+00  0.00000000E+00 -2.64340869E+00  0.00000000E+00
  0.00000000E+00
Translation vectors                        R   N=           0
Number of contracted shells                I               54
Number of primitive shells                 I              102
Highest angular momentum                   I                2
Largest degree of contraction              I                5
Shell types                                I   N=          54
           0           0           1           0           0           1
           0           0           1           0           0           1
           0           0           1           0           0           1
           0           0           0           1           1          -2
           0           0           0           1           1          -2
           0           0           0           1           1          -2
           0           0           0           1           1          -2
           0           0           0           1           1          -2
           0           0           0           1           1          -2
Number of primitives per shell             I   N=          54
           3           1           1           3           1           1
           3           1           1           3           1           1
           3           1           1           3           1           1
           5           1           1           3           1           1
           5           1           1           3           1           1
           5           1           1           3           1           1
           5           1           1           3           1           1
           5           1           1           3           1           1
           5           1           1           3           1           1
Shell to atom map                          I   N=          54
           1           1           1           2           2           2
           3           3           3           4           4           4
           5           5           5           6           6           6
           7           7           7           7           7           7
           8           8           8           8           8           8
           9           9           9           9           9           9
          10          10          10          10          10          10
          11          11          11          11          11          11
          12          12          12          12          12          12
Primitive exponents                        R   N=         102
  1.30107010E+01  1.96225720E+00  4.44537960E-01  1.21949620E-01  8.00000000E-01
  1.30107010E+01  1.96225720E+00  4.44537960E-01  1.21949620E-01  8.00000000E-01
  1.30107010E+01  1.96225720E+00  4.44537960E-01  1.21949620E-01  8.00000000E-01
  1.30107010E+01  1.96225720E+00  4.44537960E-01  1.21949620E-01  8.00000000E-01
  1.30107010E+01  1.96225720E+00  4.44537960E-01  1.21949620E-01  8.00000000E-01
  1.30107010E+01  1.96225720E+00  4.44537960E-01  1.21949620E-01  8.00000000E-01
  1.23840169E+03  1.86290050E+02  4.22511763E+01  1.16765579E+01  3.59305065E+00
  4.02451474E-01  1.30901827E-01  9.46809706E+00  2.01035451E+00  5.47710047E-01
  1.52686138E-01  8.00000000E-01  1.23840169E+03  1.86290050E+02  4.22511763E+01
  1.16765579E+01  3.59305065E+00  4.02451474E-01  1.30901827E-01  9.46809706E+00
  2.01035451E+00  5.47710047E-01  1.52686138E-01  8.00000000E-01  1.23840169E+03
  1.86290050E+02  4.22511763E+01  1.16765579E+01  3.59305065E+00  4.02451474E-01
  1.30901827E-01  9.46809706E+00  2.01035451E+00  5.47710047E-01  1.52686138E-01
  8.00000000E-01  1.23840169E+03  1.86290050E+02  4.22511763E+01  1.16765579E+01
  3.59305065E+00  4.02451474E-01  1.30901827E-01  9.46809706E+00  2.01035451E+00
  5.47710047E-01  1.52686138E-01  8.00000000E-01  1.23840169E+03  1.86290050E+02
  4.22511763E+01  1.16765579E+01  3.59305065E+00  4.02451474E-01  1.30901827E-01
  9.46809706E+00  2.01035451E+00  5.47710047E-01  1.52686138E-01  8.00000000E-01
  1.23840169E+03  1.86290050E+02  4.22511763E+01  1.16765579E+01  3.59305065E+00
  4.02451474E-01  1.30901827E-01  9.46809706E+00  2.01035451E+00  5.47710047E-01
  1.52686138E-01  8.00000000E-01
Contraction coefficients                   R   N=         102
  3.34854848E-02  2.34721871E-01  8.13770285E-01  1.00000000E+00  1.00000000E+00
  3.34854848E-02  2.34721871E-01  8.13770285E-01  1.00000000E+00  1.00000000E+00
  3.34854848E-02  2.34721871E-01  8.13770285E-01  1.00000000E+00  1.00000000E+00
  3.34854848E-02  2.34721871E-01  8.13770285E-01  1.00000000E+00  1.00000000E+00
  3.34854848E-02  2.34721871E-01  8.13770285E-01  1.00000000E+00  1.00000000E+00
  3.34854848E-02  2.34721871E-01  8.13770285E-01  1.00000000E+00  1.00000000E+00
  5.51736504E-03  4.10888285E-02  1.82253821E-01  4.68284594E-01  4.45758173E-01
  1.00000000E+00  1.00000000E+00  5.68883320E-02  3.12940593E-01  7.60650165E-01
  1.00000000E+00  1.00000000E+00  5.51736504E-03  4.10888285E-02  1.82253821E-01
  4.68284594E-01  4.45758173E-01  1.00000000E+00  1.00000000E+00  5.68883320E-02
  3.12940593E-01  7.60650165E-01  1.00000000E+00  1.00000000E+00  5.51736504E-03
  4.10888285E-02  1.82253821E-01  4.68284594E-01  4.45758173E-01  1.00000000E+00
  1.00000000E+00  5.68883320E-02  3.12940593E-01  7.60650165E-01  1.00000000E+00
  1.00000000E+00  5.51736504E-03  4.10888285E-02  1.82253821E-01  4.68284594E-01
  4.45758173E-01  1.00000000E+00  1.00000000E+00  5.68883320E-02  3.12940593E-01
  7.60650165E-01  1.00000000E+00  1.00000000E+00  5.51736504E-03  4.10888285E-02
  1.82253821E-01  4.68284594E-01  4.45758173E-01  1.00000000E+00  1.00000000E+00
  5.68883320E-02  3.12940593E-01  7.60650165E-01  1.00000000E+00  1.00000000E+00
  5.51736504E-03  4.10888285E-02  1.82253821E-01  4.68284594E-01  4.45758173E-01
  1.00000000E+00  1.00000000E+00  5.68883320E-02  3.12940593E-01  7.60650165E-01
  1.00000000E+00  1.00000000E+00
Coordinates of each shell                  R   N=         162
 -2.35470556E+00 -4.07846967E+00  0.00000000E+00 -2.35470556E+00 -4.07846967E+00
  0.00000000E+00 -2.35470556E+00 -4.07846967E+00  0.00000000E+00  2.35470556E+00
 -4.07846967E+00  0.00000000E+00  2.35470556E+00 -4.07846967E+00  0.00000000E+00
  2.35470556E+00 -4.07846967E+00  0.00000000E+00  4.70941112E+00  0.00000000E+00
  0.00000000E+00  4.70941112E+00  0.00000000E+00  0.00000000E+00  4.70941112E+00
  0.00000000E+00  0.00000000E+00  2.35470556E+00  4.07846967E+00  0.00000000E+00
  2.35470556E+00  4.07846967E+00  0.00000000E+00  2.35470556E+00  4.07846967E+00
  0.00000000E+00 -2.35470556E+00  4.07846967E+00  0.00000000E+00 -2.35470556E+00
  4.07846967E+00  0.00000000E+00 -2.35470556E+00  4.07846967E+00  0.00000000E+00
 -4.70941112E+00  0.00000000E+00  0.00000000E+00 -4.70941112E+00  0.00000000E+00
  0.00000000E+00 -4.70941112E+00  0.00000000E+00  0.00000000E+00 -1.32170434E+00
 -2.28925908E+00  0.00000000E+00 -1.32170434E+00 -2.28925908E+00  0.00000000E+00
 -1.32170434E+00 -2.28925908E+00  0.00000000E+00 -1.32170434E+00 -2.28925908E+00
  0.00000000E+00 -1.32170434E+00 -2.28925908E+00  0.00000000E+00 -1.32170434E+00
 -2.28925908E+00  0.00000000E+00  1.32170434E+00 -2.28925908E+00  0.00000000E+00
  1.32170434E+00 -2.28925908E+00  0.00000000E+00  1.32170434E+00 -2.28925908E+00
  0.00000000E+00  1.32170434E+00 -2.28925908E+00  0.00000000E+00  1.32170434E+00
 -2.28925908E+00  0.00000000E+00  1.32170434E+00 -2.28925908E+00  0.00000000E+00
  2.64340869E+00  0.00000000E+00  0.00000000E+00  2.64340869E+00  0.00000000E+00
  0.00000000E+00  2.64340869E+00  0.00000000E+00  0.00000000E+00  2.64340869E+00
  0.00000000E+00  0.00000000E+00  2.64340869E+00  0.00000000E+00  0.00000000E+00
  2.64340869E+00  0.00000000E+00  0.00000000E+00  1.32170434E+00  2.28925908E+00
  0.00000000E+00  1.32170434E+00  2.28925908E+00  0.00000000E+00  1.32170434E+00
  2.28925908E+00  0.00000000E+00  1.32170434E+00  2.28925908E+00  0.00000000E+00
  1.32170434E+00  2.28925908E+00  0.00000000E+00  1.32170434E+00  2.28925908E+00
  0.00000000E+00 -1.32170434E+00  2.28925908E+00  0.00000000E+00 -1.32170434E+00
  2.28925908E+00  0.00000000E+00 -1.32170434E+00  2.28925908E+00  0.00000000E+00
 -1.32170434E+00  2.28925908E+00  0.00000000E+00 -1.32170434E+00  2.28925908E+00
  0.00000000E+00 -1.32170434E+00  2.28925908E+00  0.00000000E+00 -2.64340869E+00
  0.00000000E+00  0.00000000E+00 -2.64340869E+00  0.00000000E+00  0.00000000E+00
 -2.64340869E+00  0.00000000E+00  0.00000000E+00 -2.64340869E+00  0.00000000E+00
  0.00000000E+00 -2.64340869E+00  0.00000000E+00  0.00000000E+00 -2.64340869E+00
  0.00000000E+00  0.00000000E+00
Virial Ratio                               R      2.000000000000000E+00
Total Energy                               R      0.000000000000000E+00
Alpha Orbital Energies                     R   N=         114
 -1.01918849E+01 -1.01917328E+01 -1.01917322E+01 -1.01913399E+01 -1.01913390E+01
 -1.01912256E+01 -8.45267770E-01 -7.37278055E-01 -7.37277685E-01 -5.96854503E-01
 -5.96854167E-01 -5.21436070E-01 -4.56740319E-01 -4.48450927E-01 -4.22008747E-01
 -4.22007728E-01 -3.68372781E-01 -3.46419911E-01 -3.46419475E-01 -2.56049855E-01
 -2.56048958E-01 -9.16930983E-03 -9.16917533E-03  5.72424019E-02  9.86239647E-02
  9.86253233E-02  1.36346704E-01  1.36348112E-01  1.47956926E-01  1.57055168E-01
  2.86361350E-01  2.86363674E-01  2.99315705E-01  2.99316335E-01  3.66068556E-01
  4.08414467E-01  4.19075451E-01  4.19076231E-01  4.33368556E-01  4.61590402E-01
  4.70503357E-01  5.03456444E-01  5.03458171E-01  5.38028662E-01  5.38030567E-01
  5.38662069E-01  6.01118996E-01  6.01122473E-01  6.33829972E-01  6.33832265E-01
  6.68377030E-01  6.68381342E-01  6.72327992E-01  7.23551359E-01  7.23552707E-01
  7.34953785E-01  7.39289118E-01  7.71953546E-01  7.71957383E-01  8.32611719E-01
  8.91150330E-01  1.02291807E+00  1.02293104E+00  1.15551992E+00  1.24466104E+00
  1.24466115E+00  1.25149163E+00  1.26497427E+00  1.26498091E+00  1.30583680E+00
  1.30583693E+00  1.51304051E+00  1.64105720E+00  1.64372187E+00  1.66650071E+00
  1.73960227E+00  1.74554296E+00  1.74554298E+00  1.75428547E+00  1.75428579E+00
  1.75523046E+00  1.75523404E+00  1.82303842E+00  1.82304511E+00  1.92851295E+00
  1.97927919E+00  1.97945455E+00  1.97945489E+00  1.98157411E+00  1.98157448E+00
  2.11126185E+00  2.13190173E+00  2.13819807E+00  2.13820017E+00  2.29965560E+00
  2.29965616E+00  2.30529981E+00  2.30530008E+00  2.34686093E+00  2.34686135E+00
  2.55487935E+00  2.59706002E+00  2.59706109E+00  2.64403814E+00  2.71644276E+00
  2.71655728E+00  2.71655906E+00  2.85884609E+00  2.85884622E+00  2.88662392E+00
  3.11595550E+00  3.11595639E+00  3.24155383E+00  3.65306518E+00
Alpha MO coefficients                      R   N=       12996
 -1.73179226E-03  2.13430873E-03 -4.98721117E-04 -8.64275909E-04  0.00000000E+00
 -1.73179226E-03  2.13430873E-03  4.98721117E-04 -8.64275909E-04  0.00000000E+00
 -1.72805107E-03  2.12723252E-03  9.94957396E-04  0.00000000E+00  0.00000000E+00
 -1.73179226E-03  2.13430873E-03  4.98721117E-04  8.64275909E-04  0.00000000E+00
 -1.73179226E-03  2.13430873E-03 -4.98721117E-04  8.64275909E-04  0.00000000E+00
 -1.72805107E-03  2.12723252E-03 -9.94957396E-04  0.00000000E+00  0.00000000E+00
  4.04118049E-01  1.60010088E-02 -6.02558120E-03 -5.43073928E-04 -9.36249765E-04
  0.00000000E+00  1.35399090E-04  2.30831852E-04  0.00000000E+00 -2.07641714E-04
  0.00000000E+00  0.00000000E+00 -3.93702471E-04  6.79735011E-04  4.04118049E-01
  1.60010088E-02 -6.02558120E-03  5.43073928E-04 -9.36249765E-04  0.00000000E+00
 -1.35399090E-04  2.30831852E-04  0.00000000E+00 -2.07641714E-04  0.00000000E+00
  0.00000000E+00 -3.93702471E-04 -6.79735011E-04  4.03249321E-01  1.59569693E-02
 -5.98675280E-03  1.08245549E-03  0.00000000E+00  0.00000000E+00 -2.69464777E-04
  0.00000000E+00  0.00000000E+00 -2.04677813E-04  0.00000000E+00  0.00000000E+00
  7.85799279E-04  0.00000000E+00  4.04118049E-01  1.60010088E-02 -6.02558120E-03
  5.43073928E-04  9.36249765E-04  0.00000000E+00 -1.35399090E-04 -2.30831852E-04
  0.00000000E+00 -2.07641714E-04  0.00000000E+00  0.00000000E+00 -3.93702471E-04
  6.79735011E-04  4.04118049E-01  1.60010088E-02 -6.02558120E-03 -5.43073928E-04
  9.36249765E-04  0.00000000E+00  1.35399090E-04 -2.30831852E-04  0.00000000E+00
 -2.07641714E-04  0.00000000E+00  0.00000000E+00 -3.93702471E-04 -6.79735011E-04
  4.03249321E-01  1.59569693E-02 -5.98675280E-03 -1.08245549E-03  0.00000000E+00
  0.00000000E+00  2.69464777E-04  0.00000000E+00  0.00000000E+00 -2.04677813E-04
  0.00000000E+00  0.00000000E+00  7.85799279E-04  0.00000000E+00 -3.15955782E-03
  1.22666844E-03 -3.02427542E-04 -1.32950863E-03  0.00000000E+00 -3.15955782E-03
  1.22666844E-03  3.02427542E-04 -1.32950863E-03  0.00000000E+00  0.00000000E+00
  0.00000000E+00  0.00000000E+00 -8.05309957E-04  0.00000000E+00  3.15955782E-03
 -1.22666844E-03 -3.02427542E-04 -1.32950863E-03  0.00000000E+00  3.15955782E-03
 -1.22666844E-03  3.02427542E-04 -1.32950863E-03  0.00000000E+00  0.00000000E+00
  0.00000000E+00  0.00000000E+00 -8.05309957E-04  0.00000000E+00  4.94303783E-01
  2.28618990E-02 -3.45593226E-03 -1.01182342E-03  3.00492070E-05  0.00000000E+00
 -5.05955687E-03 -5.75895027E-04  0.00000000E+00 -5.23221292E-04  0.00000000E+00
  0.00000000E+00 -6.74396743E-04  1.50671342E-04  4.94303783E-01  2.28618990E-02
 -3.45593226E-03  1.01182342E-03  3.00492070E-05  0.00000000E+00  5.05955687E-03
 -5.75895027E-04  0.00000000E+00 -5.23221292E-04  0.00000000E+00  0.00000000E+00
 -6.74396743E-04 -1.50671342E-04  0.00000000E+00  0.00000000E+00  0.00000000E+00
  0.00000000E+00  1.78334177E-03  0.00000000E+00  0.00000000E+00  8.18597595E-03
  0.00000000E+00  0.00000000E+00  0.00000000E+00  0.00000000E+00  0.00000000E+00
 -1.01720505E-03 -4.94303783E-01 -2.28618990E-02  3.45593226E-03 -1.01182342E-03
  3.00492070E-05  0.00000000E+00 -5.05955687E-03 -5.75895027E-04  0.00000000E+00
  5.23221292E-04  0.00000000E+00  0.00000000E+00  6.74396743E-04 -1.50671342E-04
 -4.94303783E-01 -2.28618990E-02  3.45593226E-03  1.01182342E-03  3.00492070E-05
  0.00000000E+00  5.05955687E-03 -5.75895027E-04  0.00000000E+00  5.23221292E-04
  0.00000000E+00  0.00000000E+00  6.74396743E-04  1.50671342E-04  0.00000000E+00
  0.00000000E+00  0.00000000E+00  0.00000000E+00  1.78334177E-03  0.00000000E+00
  0.00000000E+00  8.18597595E-03  0.00000000E+00  0.00000000E+00  0.00000000E+00
  0.00000000E+00  0.00000000E+00  1.01720505E-03 -1.82639624E-03  7.12454379E-04
 -9.81399984E-04 -3.04267206E-04  0.00000000E+00  1.82639624E-03 -7.12454379E-04
 -9.81399984E-04  3.04267206E-04  0.00000000E+00  3.64777685E-03 -1.40968462E-03
 -1.50215270E-03  0.00000000E+00  0.00000000E+00  1.82639624E-03 -7.12454379E-04
 -9.81399984E-04 -3.04267206E-04  0.00000000E+00 -1.82639624E-03  7.12454379E-04
 -9.81399984E-04  3.04267206E-04  0.00000000E+00 -3.64777685E-03  1.40968462E-03
 -1.50215270E-03  0.00000000E+00  0.00000000E+00  2.85897275E-01  1.32293928E-02
 -2.02614208E-03  1.19906906E-03 -1.01079904E-03  0.00000000E+00  5.26815286E-03
 -5.06340587E-03  0.00000000E+00 -3.04487776E-04  0.00000000E+00  0.00000000E+00
  6.28015861E-04  6.74174374E-04 -2.85897275E-01 -1.32293928E-02  2.02614208E-03
  1.19906906E-03  1.01079904E-03  0.00000000E+00  5.26815286E-03  5.06340587E-03
  0.00000000E+00  3.04487776E-04  0.00000000E+00  0.00000000E+00 -6.28015861E-04
  6.74174374E-04 -5.70260977E-01 -2.63720710E-02  3.95425683E-03 -5.54103183E-04
  0.00000000E+00  0.00000000E+00 -3.50017315E-03  0.00000000E+00  0.00000000E+00
  6.01520868E-04  0.00000000E+00  0.00000000E+00 -5.40524473E-04  0.00000000E+00
 -2.85897275E-01 -1.32293928E-02  2.02614208E-03  1.19906906E-03 -1.01079904E-03
  0.00000000E+00  5.26815286E-03 -5.06340587E-03  0.00000000E+00  3.04487776E-04
  0.00000000E+00  0.00000000E+00 -6.28015861E-04 -6.74174374E-04  2.85897275E-01
  1.32293928E-02 -2.02614208E-03  1.19906906E-03  1.01079904E-03  0.00000000E+00
  5.26815286E-03  5.06340587E-03  0.00000000E+00 -3.04487776E-04  0.00000000E+00
  0.00000000E+00  6.28015861E-04 -6.74174374E-04  5.70260977E-01  2.63720710E-02
 -3.95425683E-03 -5.54103183E-04  0.00000000E+00  0.00000000E+00 -3.50017315E-03
  0.00000000E+00  0.00000000E+00 -6.01520868E-04  0.00000000E+00  0.00000000E+00
  5.40524473E-04  0.00000000E+00 -2.66280489E-03  3.50222695E-03 -9.36437393E-04
 -1.38283750E-03  0.00000000E+00  2.66280489E-03 -3.50222695E-03 -9.36437393E-04
  1.38283750E-03  0.00000000E+00  0.00000000E+00  0.00000000E+00  0.00000000E+00
  2.38557320E-04  0.00000000E+00 -2.66280489E-03  3.50222695E-03  9.36437393E-04
  1.38283750E-03  0.00000000E+00  2.66280489E-03 -3.50222695E-03  9.36437393E-04
 -1.38283750E-03  0.00000000E+00  0.00000000E+00  0.00000000E+00  0.00000000E+00
 -2.38557320E-04  0.00000000E+00  4.93902333E-01  2.55268842E-02 -2.62585050E-02
  1.13129988E-03 -3.48311243E-04  0.00000000E+00 -3.24856195E-03 -3.09149788E-03
  0.00000000E+00 -1.64714749E-03  0.00000000E+00  0.00000000E+00  5.38890703E-04
  2.58504242E-04 -4.93902333E-01 -2.55268842E-02  2.62585050E-02  1.13129988E-03
  3.48311243E-04  0.00000000E+00 -3.24856195E-03  3.09149788E-03  0.00000000E+00
  1.64714749E-03  0.00000000E+00  0.00000000E+00 -5.38890703E-04  2.58504242E-04
  0.00000000E+00  0.00000000E+00  0.00000000E+00  0.00000000E+00 -2.30795239E-03
  0.00000000E+00  0.00000000E+00  2.54913235E-03  0.00000000E+00  0.00000000E+00
  0.00000000E+00  0.00000000E+00  0.00000000E+00  1.19181449E-03  4.93902333E-01
  2.55268842E-02 -2.62585050E-02 -1.13129988E-03  3.48311243E-04  0.00000000E+00
  3.24856195E-03  3.09149788E-03  0.00000000E+00 -1.64714749E-03  0.00000000E+00
  0.00000000E+00  5.38890703E-04  2.58504242E-04 -4.93902333E-01 -2.55268842E-02
  2.62585050E-02 -1.13129988E-03 -3.48311243E-04  0.00000000E+00  3.24856195E-03
 -3.09149788E-03  0.00000000E+00  1.64714749E-03  0.00000000E+00  0.00000000E+00
 -5.38890703E-04  2.58504242E-04  0.00000000E+00  0.00000000E+00  0.00000000E+00
  0.00000000E+00  2.30795239E-03  0.00000000E+00  0.00000000E+00 -2.54913235E-03
  0.00000000E+00  0.00000000E+00  0.00000000E+00  0.00000000E+00  0.00000000E+00
  1.19181449E-03 -1.53572660E-03  2.01822035E-03 -3.01177712E-04 -9.35557619E-04
  0.00000000E+00 -1.53572660E-03  2.01822035E-03  3.01177712E-04 -9.35557619E-04
  0.00000000E+00  3.07771532E-03 -4.04374687E-03 -1.92469374E-03  0.00000000E+00
  0.00000000E+00 -1.53572660E-03  2.01822035E-03  3.01177712E-04  9.35557619E-04
  0.00000000E+00 -1.53572660E-03  2.01822035E-03 -3.01177712E-04  9.35557619E-04
  0.00000000E+00  3.07771532E-03 -4.04374687E-03  1.92469374E-03  0.00000000E+00
  0.00000000E+00  2.84744484E-01  1.47212065E-02 -1.51513717E-02 -1.65395133E-03
  1.13213349E-03  0.00000000E+00  6.64256643E-04 -3.25307212E-03  0.00000000E+00
 -9.50853391E-04  0.00000000E+00  0.00000000E+00 -8.80314961E-04 -5.39690415E-04
  2.84744484E-01  1.47212065E-02 -1.51513717E-02  1.65395133E-03  1.13213349E-03
  0.00000000E+00 -6.64256643E-04 -3.25307212E-03  0.00000000E+00 -9.50853391E-04
  0.00000000E+00  0.00000000E+00 -8.80314961E-04  5.39690415E-04 -5.70719044E-01
 -2.94918847E-02  3.03214344E-02  3.04128674E-04  0.00000000E+00  0.00000000E+00
 -4.97022590E-03  0.00000000E+00  0.00000000E+00  1.90236380E-03  0.00000000E+00
  0.00000000E+00  5.17314350E-05  0.00000000E+00  2.84744484E-01  1.47212065E-02
 -1.51513717E-02  1.65395133E-03 -1.13213349E-03  0.00000000E+00 -6.64256643E-04
  3.25307212E-03  0.00000000E+00 -9.50853391E-04  0.00000000E+00  0.00000000E+00
 -8.80314961E-04 -5.39690415E-04  2.84744484E-01  1.47212065E-02 -1.51513717E-02
 -1.65395133E-03 -1.13213349E-03  0.00000000E+00  6.64256643E-04  3.25307212E-03
  0.00000000E+00 -9.50853391E-04  0.00000000E+00  0.00000000E+00 -8.80314961E-04
  5.39690415E-04 -5.70719044E-01 -2.94918847E-02  3.03214344E-02 -3.04128674E-04
  0.00000000E+00  0.00000000E+00  4.97022590E-03  0.00000000E+00  0.00000000E+00
  1.90236380E-03  0.00000000E+00  0.00000000E+00  5.17314350E-05  0.00000000E+00
  1.76183938E-03 -4.10665289E-03  7.94324247E-04  1.37758002E-03  0.00000000E+00
 -1.76183938E-03  4.10665289E-03  7.94324247E-04 -1.37758002E-03  0.00000000E+00
  1.76931110E-03 -4.10829433E-03 -1.59318433E-03  0.00000000E+00  0.00000000E+00
 -1.76183938E-03  4.10665289E-03  7.94324247E-04  1.37758002E-03  0.00000000E+00
  1.76183938E-03 -4.10665289E-03  7.94324247E-04 -1.37758002E-03  0.00000000E+00
 -1.76931110E-03  4.10829433E-03 -1.59318433E-03  0.00000000E+00  0.00000000E+00
 -4.02639856E-01 -2.26725273E-02  2.85643690E-02 -3.60848217E-04 -6.28927355E-04
  0.00000000E+00  1.18125116E-03  2.02745877E-03  0.00000000E+00  1.98803064E-03
  0.00000000E+00  0.00000000E+00 -1.00000892E-04  1.75373983E-04  4.02639856E-01
  2.26725273E-02 -2.85643690E-02 -3.60848217E-04  6.28927355E-04  0.00000000E+00
  1.18125116E-03 -2.02745877E-03  0.00000000E+00 -1.98803064E-03  0.00000000E+00
  0.00000000E+00  1.00000892E-04  1.75373983E-04 -4.03725885E-01 -2.27226557E-02
  2.85704741E-02  7.24219768E-04  0.00000000E+00  0.00000000E+00 -2.35449596E-03
  0.00000000E+00  0.00000000E+00  1.98925562E-03  0.00000000E+00  0.00000000E+00
  2.00718980E-04  0.00000000E+00  4.02639856E-01  2.26725273E-02 -2.85643690E-02
 -3.60848217E-04 -6.28927355E-04  0.00000000E+00  1.18125116E-03  2.02745877E-03
  0.00000000E+00 -1.98803064E-03  0.00000000E+00  0.00000000E+00  1.00000892E-04
 -1.75373983E-04 -4.02639856E-01 -2.26725273E-02  2.85643690E-02 -3.60848217E-04
  6.28927355E-04  0.00000000E+00  1.18125116E-03 -2.02745877E-03  0.00000000E+00
  1.98803064E-03  0.00000000E+00  0.00000000E+00 -1.00000892E-04 -1.75373983E-04
  4.03725885E-01  2.27226557E-02 -2.85704741E-02  7.24219768E-04  0.00000000E+00
  0.00000000E+00 -2.35449596E-03  0.00000000E+00  0.00000000E+00 -1.98925562E-03
  0.00000000E+00  0.00000000E+00 -2.00718980E-04  0.00000000E+00  4.35072697E-02
  8.67922373E-03  3.69274622E-03  6.39611755E-03  0.00000000E+00  4.35072697E-02
  8.67922373E-03 -3.69274622E-03  6.39611755E-03  0.00000000E+00  4.35090063E-02
  8.67589963E-03 -7.38533481E-03  0.00000000E+00  0.00000000E+00  4.35072697E-02
  8.67922373E-03 -3.69274622E-03 -6.39611755E-03  0.00000000E+00  4.35072697E-02
  8.67922373E-03  3.69274622E-03 -6.39611755E-03  0.00000000E+00  4.35090063E-02
  8.67589963E-03  7.38533481E-03  0.00000000E+00  0.00000000E+00 -1.19461058E-01
  2.28851024E-01  4.98596551E-02  3.33639438E-02  5.77874233E-02  0.00000000E+00
  7.43886525E-03  1.28820061E-02  0.00000000E+00 -7.93020970E-03  0.00000000E+00
  0.00000000E+00  1.11464429E-03 -1.93040367E-03 -1.19461058E-01  2.28851024E-01
  4.98596551E-02 -3.33639438E-02  5.77874233E-02  0.00000000E+00 -7.43886525E-03
  1.28820061E-02  0.00000000E+00 -7.93020970E-03  0.00000000E+00  0.00000000E+00
  1.11464429E-03  1.93040367E-03 -1.19460857E-01  2.28849745E-01  4.98774856E-02
 -6.67272296E-02  0.00000000E+00  0.00000000E+00 -1.48852768E-02  0.00000000E+00
  0.00000000E+00 -7.93033228E-03  0.00000000E+00  0.00000000E+00 -2.22931111E-03
  0.00000000E+00 -1.19461058E-01  2.28851024E-01  4.98596551E-02 -3.33639438E-02
 -5.77874233E-02  0.00000000E+00 -7.43886525E-03 -1.28820061E-02  0.00000000E+00
 -7.93020970E-03  0.00000000E+00  0.00000000E+00  1.11464429E-03 -1.93040367E-03
 -1.19461058E-01  2.28851024E-01  4.98596551E-02  3.33639438E-02 -5.77874233E-02
  0.00000000E+00  7.43886525E-03 -1.28820061E-02  0.00000000E+00 -7.93020970E-03
  0.00000000E+00  0.00000000E+00  1.11464429E-03  1.93040367E-03 -1.19460857E-01
  2.28849745E-01  4.98774856E-02  6.67272296E-02  0.00000000E+00  0.00000000E+00
  1.48852768E-02  0.00000000E+00  0.00000000E+00 -7.93033228E-03  0.00000000E+00
  0.00000000E+00 -2.22931111E-03  0.00000000E+00 -4.95790526E-02 -8.32596549E-03
 -1.67623307E-03 -6.38905747E-03  0.00000000E+00  4.95790526E-02  8.32596549E-03
 -1.67623307E-03  6.38905747E-03  0.00000000E+00  9.91593583E-02  1.66413510E-02
 -1.27418973E-02  0.00000000E+00  0.00000000E+00  4.95790526E-02  8.32596549E-03
 -1.67623307E-03 -6.38905747E-03  0.00000000E+00 -4.95790526E-02 -8.32596549E-03
 -1.67623307E-03  6.38905747E-03  0.00000000E+00 -9.91593583E-02 -1.66413510E-02
 -1.27418973E-02  0.00000000E+00  0.00000000E+00  8.34676450E-02 -1.65264392E-01
 -3.81845061E-02  7.88933391E-02 -6.24133727E-02  0.00000000E+00  2.80148919E-02
 -2.06421337E-02  0.00000000E+00  3.40886330E-03  0.00000000E+00  0.00000000E+00
  7.13949682E-03  7.60167525E-03 -8.34676450E-02  1.65264392E-01  3.81845061E-02
  7.88933391E-02  6.24133727E-02  0.00000000E+00  2.80148919E-02  2.06421337E-02
  0.00000000E+00 -3.40886330E-03  0.00000000E+00  0.00000000E+00 -7.13949682E-03
  7.60167525E-03 -1.66934852E-01  3.30531178E-01  7.63168167E-02 -2.92104016E-02
  0.00000000E+00  0.00000000E+00 -7.71889747E-03  0.00000000E+00  0.00000000E+00
 -6.81720920E-03  0.00000000E+00  0.00000000E+00 -6.02713508E-03  0.00000000E+00
 -8.34676450E-02  1.65264392E-01  3.81845061E-02  7.88933391E-02 -6.24133727E-02
  0.00000000E+00  2.80148919E-02 -2.06421337E-02  0.00000000E+00 -3.40886330E-03
  0.00000000E+00  0.00000000E+00 -7.13949682E-03 -7.60167525E-03  8.34676450E-02
 -1.65264392E-01 -3.81845061E-02  7.88933391E-02  6.24133727E-02  0.00000000E+00
  2.80148919E-02  2.06421337E-02  0.00000000E+00  3.40886330E-03  0.00000000E+00
  0.00000000E+00  7.13949682E-03 -7.60167525E-03  1.66934852E-01 -3.30531178E-01
 -7.63168167E-02 -2.92104016E-02  0.00000000E+00  0.00000000E+00 -7.71889747E-03
  0.00000000E+00  0.00000000E+00  6.81720920E-03  0.00000000E+00  0.00000000E+00
  6.02713508E-03  0.00000000E+00  8.58730326E-02  1.44164180E-02  6.38911839E-03
  9.05351404E-03  0.00000000E+00  8.58730326E-02  1.44164180E-02 -6.38911839E-03
  9.05351404E-03  0.00000000E+00  0.00000000E+00  0.00000000E+00  0.00000000E+00
 -2.01329618E-03  0.00000000E+00 -8.58730326E-02 -1.44164180E-02  6.38911839E-03
  9.05351404E-03  0.00000000E+00 -8.58730326E-02 -1.44164180E-02 -6.38911839E-03
  9.05351404E-03  0.00000000E+00  0.00000000E+00  0.00000000E+00  0.00000000E+00
 -2.01329618E-03  0.00000000E+00 -1.44570083E-01  2.86250528E-01  6.61169939E-02
  6.24136042E-02 -6.82445861E-03  0.00000000E+00  2.06290337E-02 -4.18980828E-03
  0.00000000E+00 -5.90401848E-03  0.00000000E+00  0.00000000E+00  7.60178521E-03
 -1.63813072E-03 -1.44570083E-01  2.86250528E-01  6.61169939E-02 -6.24136042E-02
 -6.82445861E-03  0.00000000E+00 -2.06290337E-02 -4.18980828E-03  0.00000000E+00
 -5.90401848E-03  0.00000000E+00  0.00000000E+00  7.60178521E-03  1.63813072E-03
  0.00000000E+00  0.00000000E+00  0.00000000E+00  0.00000000E+00 -1.14928594E-01
  0.00000000E+00  0.00000000E+00 -3.99145571E-02  0.00000000E+00  0.00000000E+00
  0.00000000E+00  0.00000000E+00  0.00000000E+00  1.15281460E-02  1.44570083E-01
 -2.86250528E-01 -6.61169939E-02  6.24136042E-02 -6.82445861E-03  0.00000000E+00
  2.06290337E-02 -4.18980828E-03  0.00000000E+00  5.90401848E-03  0.00000000E+00
  0.00000000E+00 -7.60178521E-03  1.63813072E-03  1.44570083E-01 -2.86250528E-01
 -6.61169939E-02 -6.24136042E-02 -6.82445861E-03  0.00000000E+00 -2.06290337E-02
 -4.18980828E-03  0.00000000E+00  5.90401848E-03  0.00000000E+00  0.00000000E+00
 -7.60178521E-03 -1.63813072E-03  0.00000000E+00  0.00000000E+00  0.00000000E+00
  0.00000000E+00 -1.14928594E-01  0.00000000E+00  0.00000000E+00 -3.99145571E-02
  0.00000000E+00  0.00000000E+00  0.00000000E+00  0.00000000E+00  0.00000000E+00
 -1.15281460E-02 -1.29594216E-01 -3.80517692E-02 -3.74857059E-03 -1.06502837E-02
  0.00000000E+00  1.29594216E-01  3.80517692E-02 -3.74857059E-03  1.06502837E-02
  0.00000000E+00  0.00000000E+00  0.00000000E+00  0.00000000E+00 -4.15971264E-03
  0.00000000E+00 -1.29594216E-01 -3.80517692E-02  3.74857059E-03  1.06502837E-02
  0.00000000E+00  1.29594216E-01  3.80517692E-02  3.74857059E-03 -1.06502837E-02
  0.00000000E+00  0.00000000E+00  0.00000000E+00  0.00000000E+00  4.15971264E-03
  0.00000000E+00  1.13205292E-01 -2.33839601E-01 -6.87906633E-02  1.17516801E-01
 -5.03873003E-03  0.00000000E+00  2.56423029E-02 -1.92539310E-02  0.00000000E+00
  1.88095161E-03  0.00000000E+00  0.00000000E+00  3.78526370E-03  1.84701041E-03
 -1.13205292E-01  2.33839601E-01  6.87906633E-02  1.17516801E-01  5.03873003E-03
  0.00000000E+00  2.56423029E-02  1.92539310E-02  0.00000000E+00 -1.88095161E-03
  0.00000000E+00  0.00000000E+00 -3.78526370E-03  1.84701041E-03  0.00000000E+00