Generated by Multiwfn
SP        RB3LYP                                              6-31G(d)
Number of atoms                            I               26
Charge                                     I                0
Multiplicity                               I                1
Number of electrons                        I              106
Number of alpha electrons                  I               53
Number of beta electrons                   I               53
Number of basis functions                  I              274
Number of independent functions            I              274
Atomic numbers                             I   N=          26
           1           1           1           1           1           1
           1           1           1           1           6           6
           6           6           6           6           6           6
           6           6           6           6           6           6
           6           6
Nuclear charges                            R   N=          26
  1.00000000E+00  1.00000000E+00  1.00000000E+00  1.00000000E+00  1.00000000E+00
  1.00000000E+00  1.00000000E+00  1.00000000E+00  1.00000000E+00  1.00000000E+00
  6.00000000E+00  6.00000000E+00  6.00000000E+00  6.00000000E+00  6.00000000E+00
  6.00000000E+00  6.00000000E+00  6.00000000E+00  6.00000000E+00  6.00000000E+00
  6.00000000E+00  6.00000000E+00  6.00000000E+00  6.00000000E+00  6.00000000E+00
  6.00000000E+00
Current cartesian coordinates              R   N=          78
  0.00000000E+00 -6.44717841E+00 -2.33159575E+00  0.00000000E+00 -6.44717841E+00
  2.33159575E+00  0.00000000E+00 -4.07759017E+00  6.40234388E+00  0.00000000E+00
  4.07759017E+00  6.40234388E+00  0.00000000E+00  0.00000000E+00  8.73712403E+00
  0.00000000E+00  4.07759017E+00 -6.40234388E+00  0.00000000E+00 -4.07759017E+00
 -6.40234388E+00  0.00000000E+00  0.00000000E+00 -8.73712403E+00  0.00000000E+00
  6.44717841E+00  2.33159575E+00  0.00000000E+00  6.44717841E+00 -2.33159575E+00
  0.00000000E+00  2.29130430E+00 -5.36394509E+00  0.00000000E+00  2.34014393E+00
 -2.70567346E+00  0.00000000E+00  0.00000000E+00 -1.35048528E+00  0.00000000E+00
 -2.34014393E+00 -2.70567346E+00  0.00000000E+00  0.00000000E+00  1.35048528E+00
  0.00000000E+00 -2.34014393E+00  2.70567346E+00  0.00000000E+00 -4.66307312E+00
  1.28904432E+00  0.00000000E+00 -4.66307312E+00 -1.28904432E+00  0.00000000E+00
  2.34014393E+00  2.70567346E+00  0.00000000E+00 -2.29130430E+00 -5.36394509E+00
  0.00000000E+00  0.00000000E+00 -6.67164812E+00  0.00000000E+00 -2.29130430E+00
  5.36394509E+00  0.00000000E+00  2.29130430E+00  5.36394509E+00  0.00000000E+00
  0.00000000E+00  6.67164812E+00  0.00000000E+00  4.66307312E+00  1.28904432E+00
  0.00000000E+00  4.66307312E+00 -1.28904432E+00
Translation vectors                        R   N=           0
Number of contracted shells                I              126
Number of primitive shells                 I              242
Highest angular momentum                   I                2
Largest degree of contraction              I                5
Shell types                                I   N=         126
           0           0           1           0           0           1
           0           0           1           0           0           1
           0           0           1           0           0           1
           0           0           1           0           0           1
           0           0           1           0           0           1
           0           0           0           1           1          -2
           0           0           0           1           1          -2
           0           0           0           1           1          -2
           0           0           0           1           1          -2
           0           0           0           1           1          -2
           0           0           0           1           1          -2
           0           0           0           1           1          -2
           0           0           0           1           1          -2
           0           0           0           1           1          -2
           0           0           0           1           1          -2
           0           0           0           1           1          -2
           0           0           0           1           1          -2
           0           0           0           1           1          -2
           0           0           0           1           1          -2
           0           0           0           1           1          -2
           0           0           0           1           1          -2
Number of primitives per shell             I   N=         126
           3           1           1           3           1           1
           3           1           1           3           1           1
           3           1           1           3           1           1
           3           1           1           3           1           1
           3           1           1           3           1           1
           5           1           1           3           1           1
           5           1           1           3           1           1
           5           1           1           3           1           1
           5           1           1           3           1           1
           5           1           1           3           1           1
           5           1           1           3           1           1
           5           1           1           3           1           1
           5           1           1           3           1           1
           5           1           1           3           1           1
           5           1           1           3           1           1
           5           1           1           3           1           1
           5           1           1           3           1           1
           5           1           1           3           1           1
           5           1           1           3           1           1
           5           1           1           3           1           1
           5           1           1           3           1           1
Shell to atom map                          I   N=         126
           1           1           1           2           2           2
           3           3           3           4           4           4
           5           5           5           6           6           6
           7           7           7           8           8           8
           9           9           9          10          10          10
          11          11          11          11          11          11
          12          12          12          12          12          12
          13          13          13          13          13          13
          14          14          14          14          14          14
          15          15          15          15          15          15
          16          16          16          16          16          16
          17          17          17          17          17          17
          18          18          18          18          18          18
          19          19          19          19          19          19
          20          20          20          20          20          20
          21          21          21          21          21          21
          22          22          22          22          22          22
          23          23          23          23          23          23
          24          24          24          24          24          24
          25          25          25          25          25          25
          26          26          26          26          26          26
Primitive exponents                        R   N=         242
  1.30107010E+01  1.96225720E+00  4.44537960E-01  1.21949620E-01  8.00000000E-01
  1.30107010E+01  1.96225720E+00  4.44537960E-01  1.21949620E-01  8.00000000E-01
  1.30107010E+01  1.96225720E+00  4.44537960E-01  1.21949620E-01  8.00000000E-01
  1.30107010E+01  1.96225720E+00  4.44537960E-01  1.21949620E-01  8.00000000E-01
  1.30107010E+01  1.96225720E+00  4.44537960E-01  1.21949620E-01  8.00000000E-01
  1.30107010E+01  1.96225720E+00  4.44537960E-01  1.21949620E-01  8.00000000E-01
  1.30107010E+01  1.96225720E+00  4.44537960E-01  1.21949620E-01  8.00000000E-01
  1.30107010E+01  1.96225720E+00  4.44537960E-01  1.21949620E-01  8.00000000E-01
  1.30107010E+01  1.96225720E+00  4.44537960E-01  1.21949620E-01  8.00000000E-01
  1.30107010E+01  1.96225720E+00  4.44537960E-01  1.21949620E-01  8.00000000E-01
  1.23840169E+03  1.86290050E+02  4.22511763E+01  1.16765579E+01  3.59305065E+00
  4.02451474E-01  1.30901827E-01  9.46809706E+00  2.01035451E+00  5.47710047E-01
  1.52686138E-01  8.00000000E-01  1.23840169E+03  1.86290050E+02  4.22511763E+01
  1.16765579E+01  3.59305065E+00  4.02451474E-01  1.30901827E-01  9.46809706E+00
  2.01035451E+00  5.47710047E-01  1.52686138E-01  8.00000000E-01  1.23840169E+03
  1.86290050E+02  4.22511763E+01  1.16765579E+01  3.59305065E+00  4.02451474E-01
  1.30901827E-01  9.46809706E+00  2.01035451E+00  5.47710047E-01  1.52686138E-01
  8.00000000E-01  1.23840169E+03  1.86290050E+02  4.22511763E+01  1.16765579E+01
  3.59305065E+00  4.02451474E-01  1.30901827E-01  9.46809706E+00  2.01035451E+00
  5.47710047E-01  1.52686138E-01  8.00000000E-01  1.23840169E+03  1.86290050E+02
  4.22511763E+01  1.16765579E+01  3.59305065E+00  4.02451474E-01  1.30901827E-01
  9.46809706E+00  2.01035451E+00  5.47710047E-01  1.52686138E-01  8.00000000E-01
  1.23840169E+03  1.86290050E+02  4.22511763E+01  1.16765579E+01  3.59305065E+00
  4.02451474E-01  1.30901827E-01  9.46809706E+00  2.01035451E+00  5.47710047E-01
  1.52686138E-01  8.00000000E-01  1.23840169E+03  1.86290050E+02  4.22511763E+01
  1.16765579E+01  3.59305065E+00  4.02451474E-01  1.30901827E-01  9.46809706E+00
  2.01035451E+00  5.47710047E-01  1.52686138E-01  8.00000000E-01  1.23840169E+03
  1.86290050E+02  4.22511763E+01  1.16765579E+01  3.59305065E+00  4.02451474E-01
  1.30901827E-01  9.46809706E+00  2.01035451E+00  5.47710047E-01  1.52686138E-01
  8.00000000E-01  1.23840169E+03  1.86290050E+02  4.22511763E+01  1.16765579E+01
  3.59305065E+00  4.02451474E-01  1.30901827E-01  9.46809706E+00  2.01035451E+00
  5.47710047E-01  1.52686138E-01  8.00000000E-01  1.23840169E+03  1.86290050E+02
  4.22511763E+01  1.16765579E+01  3.59305065E+00  4.02451474E-01  1.30901827E-01
  9.46809706E+00  2.01035451E+00  5.47710047E-01  1.52686138E-01  8.00000000E-01
  1.23840169E+03  1.86290050E+02  4.22511763E+01  1.16765579E+01  3.59305065E+00
  4.02451474E-01  1.30901827E-01  9.46809706E+00  2.01035451E+00  5.47710047E-01
  1.52686138E-01  8.00000000E-01  1.23840169E+03  1.86290050E+02  4.22511763E+01
  1.16765579E+01  3.59305065E+00  4.02451474E-01  1.30901827E-01  9.46809706E+00
  2.01035451E+00  5.47710047E-01  1.52686138E-01  8.00000000E-01  1.23840169E+03
  1.86290050E+02  4.22511763E+01  1.16765579E+01  3.59305065E+00  4.02451474E-01
  1.30901827E-01  9.46809706E+00  2.01035451E+00  5.47710047E-01  1.52686138E-01
  8.00000000E-01  1.23840169E+03  1.86290050E+02  4.22511763E+01  1.16765579E+01
  3.59305065E+00  4.02451474E-01  1.30901827E-01  9.46809706E+00  2.01035451E+00
  5.47710047E-01  1.52686138E-01  8.00000000E-01  1.23840169E+03  1.86290050E+02
  4.22511763E+01  1.16765579E+01  3.59305065E+00  4.02451474E-01  1.30901827E-01
  9.46809706E+00  2.01035451E+00  5.47710047E-01  1.52686138E-01  8.00000000E-01
  1.23840169E+03  1.86290050E+02  4.22511763E+01  1.16765579E+01  3.59305065E+00
  4.02451474E-01  1.30901827E-01  9.46809706E+00  2.01035451E+00  5.47710047E-01
  1.52686138E-01  8.00000000E-01
Contraction coefficients                   R   N=         242
  3.34854848E-02  2.34721871E-01  8.13770285E-01  1.00000000E+00  1.00000000E+00
  3.34854848E-02  2.34721871E-01  8.13770285E-01  1.00000000E+00  1.00000000E+00
  3.34854848E-02  2.34721871E-01  8.13770285E-01  1.00000000E+00  1.00000000E+00
  3.34854848E-02  2.34721871E-01  8.13770285E-01  1.00000000E+00  1.00000000E+00
  3.34854848E-02  2.34721871E-01  8.13770285E-01  1.00000000E+00  1.00000000E+00
  3.34854848E-02  2.34721871E-01  8.13770285E-01  1.00000000E+00  1.00000000E+00
  3.34854848E-02  2.34721871E-01  8.13770285E-01  1.00000000E+00  1.00000000E+00
  3.34854848E-02  2.34721871E-01  8.13770285E-01  1.00000000E+00  1.00000000E+00
  3.34854848E-02  2.34721871E-01  8.13770285E-01  1.00000000E+00  1.00000000E+00
  3.34854848E-02  2.34721871E-01  8.13770285E-01  1.00000000E+00  1.00000000E+00
  5.51736504E-03  4.10888285E-02  1.82253821E-01  4.68284594E-01  4.45758173E-01
  1.00000000E+00  1.00000000E+00  5.68883320E-02  3.12940593E-01  7.60650165E-01
  1.00000000E+00  1.00000000E+00  5.51736504E-03  4.10888285E-02  1.82253821E-01
  4.68284594E-01  4.45758173E-01  1.00000000E+00  1.00000000E+00  5.68883320E-02
  3.12940593E-01  7.60650165E-01  1.00000000E+00  1.00000000E+00  5.51736504E-03
  4.10888285E-02  1.82253821E-01  4.68284594E-01  4.45758173E-01  1.00000000E+00
  1.00000000E+00  5.68883320E-02  3.12940593E-01  7.60650165E-01  1.00000000E+00
  1.00000000E+00  5.51736504E-03  4.10888285E-02  1.82253821E-01  4.68284594E-01
  4.45758173E-01  1.00000000E+00  1.00000000E+00  5.68883320E-02  3.12940593E-01
  7.60650165E-01  1.00000000E+00  1.00000000E+00  5.51736504E-03  4.10888285E-02
  1.82253821E-01  4.68284594E-01  4.45758173E-01  1.00000000E+00  1.00000000E+00
  5.68883320E-02  3.12940593E-01  7.60650165E-01  1.00000000E+00  1.00000000E+00
  5.51736504E-03  4.10888285E-02  1.82253821E-01  4.68284594E-01  4.45758173E-01
  1.00000000E+00  1.00000000E+00  5.68883320E-02  3.12940593E-01  7.60650165E-01
  1.00000000E+00  1.00000000E+00  5.51736504E-03  4.10888285E-02  1.82253821E-01
  4.68284594E-01  4.45758173E-01  1.00000000E+00  1.00000000E+00  5.68883320E-02
  3.12940593E-01  7.60650165E-01  1.00000000E+00  1.00000000E+00  5.51736504E-03
  4.10888285E-02  1.82253821E-01  4.68284594E-01  4.45758173E-01  1.00000000E+00
  1.00000000E+00  5.68883320E-02  3.12940593E-01  7.60650165E-01  1.00000000E+00
  1.00000000E+00  5.51736504E-03  4.10888285E-02  1.82253821E-01  4.68284594E-01
  4.45758173E-01  1.00000000E+00  1.00000000E+00  5.68883320E-02  3.12940593E-01
  7.60650165E-01  1.00000000E+00  1.00000000E+00  5.51736504E-03  4.10888285E-02
  1.82253821E-01  4.68284594E-01  4.45758173E-01  1.00000000E+00  1.00000000E+00
  5.68883320E-02  3.12940593E-01  7.60650165E-01  1.00000000E+00  1.00000000E+00
  5.51736504E-03  4.10888285E-02  1.82253821E-01  4.68284594E-01  4.45758173E-01
  1.00000000E+00  1.00000000E+00  5.68883320E-02  3.12940593E-01  7.60650165E-01
  1.00000000E+00  1.00000000E+00  5.51736504E-03  4.10888285E-02  1.82253821E-01
  4.68284594E-01  4.45758173E-01  1.00000000E+00  1.00000000E+00  5.68883320E-02
  3.12940593E-01  7.60650165E-01  1.00000000E+00  1.00000000E+00  5.51736504E-03
  4.10888285E-02  1.82253821E-01  4.68284594E-01  4.45758173E-01  1.00000000E+00
  1.00000000E+00  5.68883320E-02  3.12940593E-01  7.60650165E-01  1.00000000E+00
  1.00000000E+00  5.51736504E-03  4.10888285E-02  1.82253821E-01  4.68284594E-01
  4.45758173E-01  1.00000000E+00  1.00000000E+00  5.68883320E-02  3.12940593E-01
  7.60650165E-01  1.00000000E+00  1.00000000E+00  5.51736504E-03  4.10888285E-02
  1.82253821E-01  4.68284594E-01  4.45758173E-01  1.00000000E+00  1.00000000E+00
  5.68883320E-02  3.12940593E-01  7.60650165E-01  1.00000000E+00  1.00000000E+00
  5.51736504E-03  4.10888285E-02  1.82253821E-01  4.68284594E-01  4.45758173E-01
  1.00000000E+00  1.00000000E+00  5.68883320E-02  3.12940593E-01  7.60650165E-01
  1.00000000E+00  1.00000000E+00
Coordinates of each shell                  R   N=         378
  0.00000000E+00 -6.44717841E+00 -2.33159575E+00  0.00000000E+00 -6.44717841E+00
 -2.33159575E+00  0.00000000E+00 -6.44717841E+00 -2.33159575E+00  0.00000000E+00
 -6.44717841E+00  2.33159575E+00  0.00000000E+00 -6.44717841E+00  2.33159575E+00
  0.00000000E+00 -6.44717841E+00  2.33159575E+00  0.00000000E+00 -4.07759017E+00
  6.40234388E+00  0.00000000E+00 -4.07759017E+00  6.40234388E+00  0.00000000E+00
 -4.07759017E+00  6.40234388E+00  0.00000000E+00  4.07759017E+00  6.40234388E+00
  0.00000000E+00  4.07759017E+00  6.40234388E+00  0.00000000E+00  4.07759017E+00
  6.40234388E+00  0.00000000E+00  0.00000000E+00  8.73712403E+00  0.00000000E+00
  0.00000000E+00  8.73712403E+00  0.00000000E+00  0.00000000E+00  8.73712403E+00
  0.00000000E+00  4.07759017E+00 -6.40234388E+00  0.00000000E+00  4.07759017E+00
 -6.40234388E+00  0.00000000E+00  4.07759017E+00 -6.40234388E+00  0.00000000E+00
 -4.07759017E+00 -6.40234388E+00  0.00000000E+00 -4.07759017E+00 -6.40234388E+00
  0.00000000E+00 -4.07759017E+00 -6.40234388E+00  0.00000000E+00  0.00000000E+00
 -8.73712403E+00  0.00000000E+00  0.00000000E+00 -8.73712403E+00  0.00000000E+00
  0.00000000E+00 -8.73712403E+00  0.00000000E+00  6.44717841E+00  2.33159575E+00
  0.00000000E+00  6.44717841E+00  2.33159575E+00  0.00000000E+00  6.44717841E+00
  2.33159575E+00  0.00000000E+00  6.44717841E+00 -2.33159575E+00  0.00000000E+00
  6.44717841E+00 -2.33159575E+00  0.00000000E+00  6.44717841E+00 -2.33159575E+00
  0.00000000E+00  2.29130430E+00 -5.36394509E+00  0.00000000E+00  2.29130430E+00
 -5.36394509E+00  0.00000000E+00  2.29130430E+00 -5.36394509E+00  0.00000000E+00
  2.29130430E+00 -5.36394509E+00  0.00000000E+00  2.29130430E+00 -5.36394509E+00
  0.00000000E+00  2.29130430E+00 -5.36394509E+00  0.00000000E+00  2.34014393E+00
 -2.70567346E+00  0.00000000E+00  2.34014393E+00 -2.70567346E+00  0.00000000E+00
  2.34014393E+00 -2.70567346E+00  0.00000000E+00  2.34014393E+00 -2.70567346E+00
  0.00000000E+00  2.34014393E+00 -2.70567346E+00  0.00000000E+00  2.34014393E+00
 -2.70567346E+00  0.00000000E+00  0.00000000E+00 -1.35048528E+00  0.00000000E+00
  0.00000000E+00 -1.35048528E+00  0.00000000E+00  0.00000000E+00 -1.35048528E+00
  0.00000000E+00  0.00000000E+00 -1.35048528E+00  0.00000000E+00  0.00000000E+00
 -1.35048528E+00  0.00000000E+00  0.00000000E+00 -1.35048528E+00  0.00000000E+00
 -2.34014393E+00 -2.70567346E+00  0.00000000E+00 -2.34014393E+00 -2.70567346E+00
  0.00000000E+00 -2.34014393E+00 -2.70567346E+00  0.00000000E+00 -2.34014393E+00
 -2.70567346E+00  0.00000000E+00 -2.34014393E+00 -2.70567346E+00  0.00000000E+00
 -2.34014393E+00 -2.70567346E+00  0.00000000E+00  0.00000000E+00  1.35048528E+00
  0.00000000E+00  0.00000000E+00  1.35048528E+00  0.00000000E+00  0.00000000E+00
  1.35048528E+00  0.00000000E+00  0.00000000E+00  1.35048528E+00  0.00000000E+00
  0.00000000E+00  1.35048528E+00  0.00000000E+00  0.00000000E+00  1.35048528E+00
  0.00000000E+00 -2.34014393E+00  2.70567346E+00  0.00000000E+00 -2.34014393E+00
  2.70567346E+00  0.00000000E+00 -2.34014393E+00  2.70567346E+00  0.00000000E+00
 -2.34014393E+00  2.70567346E+00  0.00000000E+00 -2.34014393E+00  2.70567346E+00
  0.00000000E+00 -2.34014393E+00  2.70567346E+00  0.00000000E+00 -4.66307312E+00
  1.28904432E+00  0.00000000E+00 -4.66307312E+00  1.28904432E+00  0.00000000E+00
 -4.66307312E+00  1.28904432E+00  0.00000000E+00 -4.66307312E+00  1.28904432E+00
  0.00000000E+00 -4.66307312E+00  1.28904432E+00  0.00000000E+00 -4.66307312E+00
  1.28904432E+00  0.00000000E+00 -4.66307312E+00 -1.28904432E+00  0.00000000E+00
 -4.66307312E+00 -1.28904432E+00  0.00000000E+00 -4.66307312E+00 -1.28904432E+00
  0.00000000E+00 -4.66307312E+00 -1.28904432E+00  0.00000000E+00 -4.66307312E+00
 -1.28904432E+00  0.00000000E+00 -4.66307312E+00 -1.28904432E+00  0.00000000E+00
  2.34014393E+00  2.70567346E+00  0.00000000E+00  2.34014393E+00  2.70567346E+00
  0.00000000E+00  2.34014393E+00  2.70567346E+00  0.00000000E+00  2.34014393E+00
  2.70567346E+00  0.00000000E+00  2.34014393E+00  2.70567346E+00  0.00000000E+00
  2.34014393E+00  2.70567346E+00  0.00000000E+00 -2.29130430E+00 -5.36394509E+00
  0.00000000E+00 -2.29130430E+00 -5.36394509E+00  0.00000000E+00 -2.29130430E+00
 -5.36394509E+00  0.00000000E+00 -2.29130430E+00 -5.36394509E+00  0.00000000E+00
 -2.29130430E+00 -5.36394509E+00  0.00000000E+00 -2.29130430E+00 -5.36394509E+00
  0.00000000E+00  0.00000000E+00 -6.67164812E+00  0.00000000E+00  0.00000000E+00
 -6.67164812E+00  0.00000000E+00  0.00000000E+00 -6.67164812E+00  0.00000000E+00
  0.00000000E+00 -6.67164812E+00  0.00000000E+00  0.00000000E+00 -6.67164812E+00
  0.00000000E+00  0.00000000E+00 -6.67164812E+00  0.00000000E+00 -2.29130430E+00
  5.36394509E+00  0.00000000E+00 -2.29130430E+00  5.36394509E+00  0.00000000E+00
 -2.29130430E+00  5.36394509E+00  0.00000000E+00 -2.29130430E+00  5.36394509E+00
  0.00000000E+00 -2.29130430E+00  5.36394509E+00  0.00000000E+00 -2.29130430E+00
  5.36394509E+00  0.00000000E+00  2.29130430E+00  5.36394509E+00  0.00000000E+00
  2.29130430E+00  5.36394509E+00  0.00000000E+00  2.29130430E+00  5.36394509E+00
  0.00000000E+00  2.29130430E+00  5.36394509E+00  0.00000000E+00  2.29130430E+00
  5.36394509E+00  0.00000000E+00  2.29130430E+00  5.36394509E+00  0.00000000E+00
  0.00000000E+00  6.67164812E+00  0.00000000E+00  0.00000000E+00  6.67164812E+00
  0.00000000E+00  0.00000000E+00  6.67164812E+00  0.00000000E+00  0.00000000E+00
  6.67164812E+00  0.00000000E+00  0.00000000E+00  6.67164812E+00  0.00000000E+00
  0.00000000E+00  6.67164812E+00  0.00000000E+00  4.66307312E+00  1.28904432E+00
  0.00000000E+00  4.66307312E+00  1.28904432E+00  0.00000000E+00  4.66307312E+00
  1.28904432E+00  0.00000000E+00  4.66307312E+00  1.28904432E+00  0.00000000E+00
  4.66307312E+00  1.28904432E+00  0.00000000E+00  4.66307312E+00  1.28904432E+00
  0.00000000E+00  4.66307312E+00 -1.28904432E+00  0.00000000E+00  4.66307312E+00
 -1.28904432E+00  0.00000000E+00  4.66307312E+00 -1.28904432E+00  0.00000000E+00
  4.66307312E+00 -1.28904432E+00  0.00000000E+00  4.66307312E+00 -1.28904432E+00
  0.00000000E+00  4.66307312E+00 -1.28904432E+00
Virial Ratio                               R      2.000000000000000E+00
Total Energy                               R      0.000000000000000E+00
Alpha Orbital Energies                     R   N=         274
 -1.02007106E+01 -1.02006947E+01 -1.02005840E+01 -1.02005526E+01 -1.01994573E+01
 -1.01991858E+01 -1.01959775E+01 -1.01959478E+01 -1.01954509E+01 -1.01954187E+01
 -1.01950478E+01 -1.01950402E+01 -1.01942872E+01 -1.01942505E+01 -1.01941719E+01
 -1.01941648E+01 -8.86701191E-01 -8.45163188E-01 -8.24797500E-01 -7.91432526E-01
 -7.60650537E-01 -7.41918373E-01 -7.24791212E-01 -7.04600985E-01 -6.25417678E-01
 -6.24026536E-01 -6.21186532E-01 -6.06533224E-01 -5.42366562E-01 -5.26086918E-01
 -5.15270459E-01 -5.05784071E-01 -4.91240062E-01 -4.71527555E-01 -4.41669766E-01
 -4.38408348E-01 -4.37968502E-01 -4.20591426E-01 -4.15481120E-01 -4.01182195E-01
 -4.00575390E-01 -3.93435262E-01 -3.70965339E-01 -3.69669451E-01 -3.67043815E-01
 -3.47107789E-01 -3.34835001E-01 -3.25016901E-01 -3.03302366E-01 -2.79853576E-01
 -2.61650741E-01 -2.37395205E-01 -2.05060671E-01 -6.50467215E-02 -3.39081278E-02
 -1.36169918E-02  9.21487690E-03  4.73474609E-02  5.96960980E-02  7.13844574E-02
  7.69304610E-02  9.36111814E-02  9.94989461E-02  1.04487862E-01  1.17929383E-01
  1.24847520E-01  1.37096883E-01  1.48531305E-01  1.63501293E-01  1.68392587E-01
  2.28437633E-01  2.36704627E-01  2.37195032E-01  2.48118314E-01  2.62940458E-01
  2.70534413E-01  2.77846055E-01  2.80368073E-01  2.97680399E-01  3.11924346E-01
  3.14837363E-01  3.23197239E-01  3.29568089E-01  3.35091808E-01  3.43370128E-01
  3.59676406E-01  3.60779236E-01  3.91593454E-01  4.00437579E-01  4.04050758E-01
  4.21661440E-01  4.21961449E-01  4.32696538E-01  4.40042099E-01  4.48490133E-01
  4.59733671E-01  4.67586618E-01  4.73170550E-01  4.77595427E-01  4.79889317E-01
  4.91931152E-01  4.97037891E-01  5.01952726E-01  5.08193427E-01  5.09500019E-01
  5.16947452E-01  5.40071060E-01  5.47992129E-01  5.51884672E-01  5.56345345E-01
  5.57570430E-01  5.74550529E-01  6.17646726E-01  6.19381907E-01  6.31385694E-01
  6.35117729E-01  6.38894892E-01  6.42259955E-01  6.53499020E-01  6.55355469E-01
  6.59085743E-01  6.66193448E-01  6.69589822E-01  6.89509558E-01  6.96484884E-01
  6.97595512E-01  7.03008818E-01  7.10810704E-01  7.31017227E-01  7.34486128E-01
  7.51351398E-01  7.51595890E-01  7.57508820E-01  7.60044656E-01  7.69683558E-01
  7.95231931E-01  8.15865166E-01  8.18205304E-01  8.26997570E-01  8.37128041E-01
  8.51762956E-01  8.57535057E-01  8.91423075E-01  8.93052033E-01  9.51371413E-01
  9.97331668E-01  1.02884939E+00  1.07666099E+00  1.08587900E+00  1.11773750E+00
  1.12377357E+00  1.16250169E+00  1.18451178E+00  1.19241990E+00  1.19478372E+00
  1.19557138E+00  1.19978986E+00  1.23167674E+00  1.23411107E+00  1.24946966E+00
  1.25347233E+00  1.25668276E+00  1.26940859E+00  1.28247596E+00  1.29572603E+00
  1.29589965E+00  1.32701178E+00  1.33871144E+00  1.34177514E+00  1.34260627E+00
  1.35343966E+00  1.35975712E+00  1.37126181E+00  1.48439093E+00  1.50192053E+00
  1.50389083E+00  1.51639459E+00  1.62724843E+00  1.63251255E+00  1.64978152E+00
  1.67100293E+00  1.67301721E+00  1.67331690E+00  1.67775545E+00  1.67938767E+00
  1.71842648E+00  1.72589762E+00  1.73088975E+00  1.73282185E+00  1.73858618E+00
  1.75377086E+00  1.75566052E+00  1.76165040E+00  1.76773769E+00  1.76986237E+00
  1.76990804E+00  1.78042600E+00  1.79508445E+00  1.81868388E+00  1.83985164E+00
  1.85883121E+00  1.85999198E+00  1.90502966E+00  1.90606024E+00  1.92548768E+00
  1.93710792E+00  1.95633293E+00  1.95719818E+00  1.95811542E+00  1.99399612E+00
  2.00536998E+00  2.02790672E+00  2.04429165E+00  2.05764465E+00  2.05955657E+00
  2.08389294E+00  2.08844134E+00  2.09810166E+00  2.11186677E+00  2.12679092E+00
  2.12994044E+00  2.14791885E+00  2.17244290E+00  2.17995761E+00  2.19531515E+00
  2.19848521E+00  2.21379729E+00  2.22185083E+00  2.25168172E+00  2.26595088E+00
  2.26889843E+00  2.29295865E+00  2.31914789E+00  2.31990793E+00  2.34869579E+00
  2.37886132E+00  2.39498449E+00  2.39985049E+00  2.40265799E+00  2.48642949E+00
  2.48815182E+00  2.50245245E+00  2.50572070E+00  2.52387905E+00  2.58486230E+00
  2.58914667E+00  2.60102968E+00  2.60921413E+00  2.60945897E+00  2.63025754E+00
  2.68352549E+00  2.70153543E+00  2.72105652E+00  2.73203130E+00  2.74576154E+00
  2.75709618E+00  2.76842842E+00  2.77228159E+00  2.79178680E+00  2.83107197E+00
  2.91100060E+00  2.93152128E+00  2.95833719E+00  2.97474669E+00  3.01577320E+00
  3.01692635E+00  3.03153791E+00  3.07986578E+00  3.17835604E+00  3.19959006E+00
  3.36888565E+00  3.50321213E+00  3.57618974E+00  3.66390706E+00
Alpha MO coefficients                      R   N=       75076
  1.29509708E-03  2.72654477E-03  0.00000000E+00 -3.24303855E-04 -3.42915300E-05
 -1.29509708E-03 -2.72654477E-03  0.00000000E+00  3.24303855E-04 -3.42915300E-05
 -7.18172093E-04 -2.48427930E-03  0.00000000E+00  1.08535872E-04 -1.12291189E-04
  7.18172093E-04  2.48427930E-03  0.00000000E+00  1.08535872E-04  1.12291189E-04
  0.00000000E+00  0.00000000E+00  0.00000000E+00  1.19145372E-04  0.00000000E+00
 -7.18172093E-04 -2.48427930E-03  0.00000000E+00 -1.08535872E-04  1.12291189E-04
  7.18172093E-04  2.48427930E-03  0.00000000E+00 -1.08535872E-04 -1.12291189E-04
  0.00000000E+00  0.00000000E+00  0.00000000E+00 -1.19145372E-04  0.00000000E+00
  1.29509708E-03  2.72654477E-03  0.00000000E+00  3.24303855E-04  3.42915300E-05
 -1.29509708E-03 -2.72654477E-03  0.00000000E+00 -3.24303855E-04  3.42915300E-05
  1.99049882E-02  1.69912213E-03  9.55260569E-03  0.00000000E+00 -2.75240695E-04
 -8.95093782E-04  0.00000000E+00  9.25798304E-03  7.69202359E-03 -9.50150035E-04
  0.00000000E+00  1.38202205E-04  8.99834680E-05  0.00000000E+00  4.93390246E-01
  2.62984269E-02  4.48063838E-02  0.00000000E+00 -5.60583467E-04  1.05385194E-04
  0.00000000E+00 -2.32053806E-02  3.71335248E-02  6.63522201E-04  0.00000000E+00
 -4.46783075E-04 -9.48291049E-04  0.00000000E+00  0.00000000E+00  0.00000000E+00
  0.00000000E+00  0.00000000E+00  3.80391980E-05  0.00000000E+00  0.00000000E+00
 -9.00246972E-02  0.00000000E+00  0.00000000E+00  0.00000000E+00  1.45913080E-03
  0.00000000E+00  0.00000000E+00 -4.93390246E-01 -2.62984269E-02 -4.48063838E-02
  0.00000000E+00 -5.60583467E-04 -1.05385194E-04  0.00000000E+00 -2.32053806E-02
 -3.71335248E-02 -6.63522201E-04  0.00000000E+00 -4.46783075E-04  9.48291049E-04
  0.00000000E+00  0.00000000E+00  0.00000000E+00  0.00000000E+00  0.00000000E+00
 -3.80391980E-05  0.00000000E+00  0.00000000E+00  9.00246972E-02  0.00000000E+00
  0.00000000E+00  0.00000000E+00  1.45913080E-03  0.00000000E+00  0.00000000E+00
  4.93390246E-01  2.62984269E-02  4.48063838E-02  0.00000000E+00  5.60583467E-04
 -1.05385194E-04  0.00000000E+00  2.32053806E-02 -3.71335248E-02  6.63522201E-04
  0.00000000E+00 -4.46783075E-04 -9.48291049E-04  0.00000000E+00  9.54743016E-03
 -8.58770251E-04 -2.87636664E-02  0.00000000E+00 -8.52359684E-04 -6.46339754E-04
  0.00000000E+00 -1.21556303E-02  1.44907762E-02  1.80958552E-04  0.00000000E+00
 -5.83294414E-04  7.93811017E-04  0.00000000E+00 -9.54743016E-03  8.58770251E-04
  2.87636664E-02  0.00000000E+00  8.52359684E-04 -6.46339754E-04  0.00000000E+00
  1.21556303E-02  1.44907762E-02 -1.80958552E-04  0.00000000E+00 -5.83294414E-04
 -7.93811017E-04  0.00000000E+00 -4.93390246E-01 -2.62984269E-02 -4.48063838E-02
  0.00000000E+00  5.60583467E-04  1.05385194E-04  0.00000000E+00  2.32053806E-02
  3.71335248E-02 -6.63522201E-04  0.00000000E+00 -4.46783075E-04  9.48291049E-04
  0.00000000E+00 -1.99049882E-02 -1.69912213E-03 -9.55260569E-03  0.00000000E+00
 -2.75240695E-04  8.95093782E-04  0.00000000E+00  9.25798304E-03 -7.69202359E-03
  9.50150035E-04  0.00000000E+00  1.38202205E-04 -8.99834680E-05  0.00000000E+00
  0.00000000E+00  0.00000000E+00  0.00000000E+00  0.00000000E+00  2.34953692E-04
  0.00000000E+00  0.00000000E+00  6.08279125E-03  0.00000000E+00  0.00000000E+00